# vtk DataFile Version 3.0
Catalog data for visualization
ASCII

DATASET POLYDATA
POINTS 100 DOUBLE
0.2197561185 0.2594294869 0.6000888528
0.7091150720 0.3211939892 0.2234143840
0.5774750586 0.6792421693 0.0081548871
0.8274132533 0.3041078997 0.4836513925
0.4846458283 0.8201761965 0.4702619284
0.4487049554 0.0411792057 0.0436447743
0.0308822315 0.0129980490 0.8653062311
0.3987902135 0.8718472974 0.0457885788
0.2527618110 0.0744947169 0.6063801910
0.8771094034 0.0654077824 0.6361762689
0.4672423576 0.2067385703 0.1196915622
0.1909687816 0.5143463932 0.1415611816
0.8742487497 0.7763256187 0.6693663594
0.0915350770 0.2673341825 0.5306870362
0.0006528953 0.3631218881 0.6469028172
0.8995537870 0.5028605015 0.2205837314
0.4193220797 0.5105581440 0.4028029417
0.7614993753 0.3462409318 0.0100815983
0.9157931264 0.0302233032 0.6970446536
0.7967658352 0.3980583066 0.7229616803
0.9556631943 0.8527492679 0.5316258839
0.5697387294 0.8362156290 0.0060681931
0.6475566965 0.3148440912 0.7071909561
0.7101101811 0.3388272165 0.0245156661
0.2667560942 0.4547139713 0.4173155952
0.0020603583 0.2237452079 0.8262667716
0.7699974500 0.7552950474 0.7085968375
0.1139098848 0.2480727597 0.6527730901
0.4680632056 0.9443553264 0.7147399611
0.2970161025 0.3320703397 0.0305446898
0.3085600455 0.3828513671 0.8574512740
0.2627524437 0.2343448177 0.3086256627
0.6784801473 0.4503431843 0.3425289679
0.0096590897 0.6818059964 0.7449376430
0.4666469115 0.4785480036 0.5296952910
0.3578520120 0.0652307912 0.4534609690
0.7480782508 0.4738355834 0.1916343120
0.2112795243 0.3394120189 0.4971951716
0.4720202487 0.9268762791 0.7553361965
0.2653382408 0.5319144038 0.9111345372
0.6148214948 0.7946624404 0.7910676271
0.1800209225 0.1907707022 0.5679001121
0.3745482377 0.8824145494 0.3909467962
0.9252580666 0.4010454378 0.0217508759
0.2874702916 0.1200958471 0.4793014568
0.0889790385 0.5585634971 0.9012278410
0.7194910503 0.5999725469 0.1942428201
0.9701615694 0.7392350180 0.0384091236
0.3933248938 0.3656948274 0.4182146961
0.2933773585 0.8832133411 0.1077362100
0.7302643169 0.0589375002 0.3641703369
0.2785021145 0.8388752886 0.0326197705
0.6284618903 0.3130731300 0.1733532664
0.2965690495 0.7544153867 0.2042746969
0.8624826933 0.2788359054 0.9435515106
0.0204342468 0.0864327918 0.2016170714
0.4659454805 0.1033838154 0.2007732275
0.0111998175 0.0130836414 0.9185504088
0.8565442365 0.0870027022 0.8309980212
0.5664125968 0.3762940766 0.5549721356
0.7646152550 0.4570680731 0.6915008813
0.7684254654 0.6202963475 0.8997407227
0.5818088731 0.2651911653 0.6293509265
0.6441443583 0.1241166752 0.7411692355
0.9410798810 0.2689605107 0.8051341179
0.6070053600 0.7386980313 0.3964658819
0.3681575897 0.8831423265 0.8417448258
0.1486053916 0.1925732694 0.5016560609
0.7685024107 0.6517168024 0.3630091808
0.1550465405 0.1214297103 0.3465789473
0.8416390823 0.9605471422 0.6613965063
0.6344719608 0.6433031095 0.7795515375
0.6886645525 0.6891899995 0.0643938872
0.6499942838 0.4195357448 0.7758352249
0.8698674398 0.8150576245 0.3657172501
0.5557763584 0.3317948210 0.9899547842
0.8730442194 0.4201449009 0.1675387374
0.2737347801 0.2081518658 0.2386881711
0.8850993487 0.6232399532 0.7010152704
0.6012441611 0.3489204252 0.7603244603
0.9151363743 0.4252724541 0.5444468318
0.4259821586 0.2215739633 0.6370182609
0.7331282494 0.4359061046 0.3764539568
0.6146757732 0.0506939673 0.7722510712
0.2929934191 0.0292001769 0.4664915263
0.9715687040 0.0329087881 0.6172915794
0.2232002559 0.1209866417 0.8405306825
0.3657883656 0.6365452406 0.5303530517
0.8280519256 0.9681201385 0.9022464654
0.5049376564 0.8990506308 0.5747131366
0.3154748231 0.1495757487 0.1964242165
0.4599469756 0.7520262865 0.6382193370
0.9797578005 0.1012997306 0.1866124791
0.5917795929 0.6331046963 0.5597104657
0.6318876055 0.9519451320 0.4460552100
0.3649570237 0.9812511146 0.7271937011
0.6468568436 0.1738218153 0.6084464203
0.5890489985 0.9490987732 0.1793337119
0.5157782078 0.5940789514 0.4943728830
0.9875941934 0.3607161149 0.6622628325

POINT_DATA 100
VECTORS v DOUBLE
-0.1507477347 0.0241887350 0.0925794169
0.2038590343 -0.1080852681 0.1098223245
-0.0207874512 0.1044150127 -0.0369210562
-0.0740121891 0.0209615446 -0.1140718729
0.1405262061 -0.1356857564 -0.0036736442
-0.0376069346 0.0965519437 0.1286146856
-0.0032601797 -0.1528666067 -0.1381923480
-0.0259777572 0.0640185884 0.0301397076
-0.0752025314 0.0142774386 0.0713776458
-0.0921551962 -0.1580056809 0.0373740947
-0.1975651610 -0.0737897224 -0.0138882067
-0.1621223048 -0.1241595087 0.0712274763
-0.1673805379 -0.1020398196 -0.0843353636
-0.1439277757 -0.0830306475 -0.0002089937
0.0092916375 0.0599177909 -0.0348134969
-0.0346584144 -0.0778646975 -0.0128816975
0.1372386510 -0.1089063282 0.0945922999
-0.0224823686 0.0596154397 -0.0993944419
-0.0680274350 -0.0715418224 0.0383658001
0.1179518343 0.0512227039 0.0380392548
0.3043750162 -0.0575706889 -0.0543453419
-0.0961047853 -0.1744533658 -0.1224221838
-0.0049840829 -0.0559972072 -0.0964404159
0.1507993541 -0.0549286408 0.1198199448
0.0244342790 0.1203009652 -0.1304577155
0.0794367939 0.0415119428 -0.1530333472
0.0794979297 0.0742763270 -0.0267717189
-0.0784350263 -0.1053938774 -0.0558839274
-0.0649630001 0.2054835292 -0.0075867302
-0.0128131801 -0.0971962016 -0.0125603328
0.0527273015 0.0462580414 -0.0545145148
-0.0518131501 0.1454939751 -0.0174186593
-0.1217551350 0.1541153549 -0.0938929627
0.0633476894 -0.1277016779 0.0064409203
0.2344352453 0.0267606973 -0.0433020656
-0.0845368351 -0.0552985931 -0.1428474062
-0.0823188810 -0.0345126600 -0.0722296632
-0.1448051077 -0.0058976799 0.0788190548
-0.0521202111 0.0312677732 0.0887450339
0.0479195659 0.0120979951 -0.0079915949
0.0973482162 -0.0163673930 -0.0440459819
-0.0299719518 0.0361955543 -0.1874765422
-0.0746636655 -0.0263218698 0.1642507865
0.0377262494 0.0328752222 0.1063902201
-0.0482714163 -0.0052327302 -0.0743266826
0.1899570780 -0.0499538112 -0.0210124794
-0.0099178431 -0.1273501849 0.2015401546
0.0334575249 -0.1244556291 -0.0411924491
0.0653835055 0.1472861768 -0.0182396881
0.0899515241 0.0142577973 -0.1960644259
0.0496222021 -0.0289314838 0.1247594707
0.0285933916 0.1841792758 -0.0782663607
-0.0981695967 0.1461816424 -0.0497222843
-0.0404897841 0.1999314447 -0.1221384581
-0.2051699588 0.0518888037 -0.0220220576
0.0833015765 0.1104402256 0.0115458610
-0.0742902140 -0.0510703239 -0.0093462032
-0.1597801700 0.1275492327 -0.1195868215
-0.0754060752 -0.1608551584 0.0861640058
-0.1538343462 0.0110017766 0.1219433889
-0.0565073503 -0.1181140088 -0.2575916422
0.0153253153 0.0675512898 -0.2875799849
0.0944226153 -0.0298727093 -0.0331611291
0.0248461981 -0.0847898969 -0.1312771583
-0.0416101394 0.0517381631 -0.0785333332
0.0052171092 -0.1610057159 -0.2036414302
-0.0361411741 0.0210759079 0.0290864939
0.1074223597 -0.0202285288 0.0910927919
0.0206668242 -0.0621990221 0.1195677345
0.1340822130 0.0211230576 0.0739076276
0.0686168620 0.0495109840 0.1004271592
0.1453410776 0.1344457839 0.1068030132
-0.1852537650 0.0833938282 0.0264430361
-0.0565212186 -0.0562821718 -0.0165530855
-0.0025519697 -0.0404021092 0.0354183461
-0.1627926034 -0.0292364276 0.0128225119
-0.0609167104 0.0329210230 0.0966770877
-0.0289634258 -0.0035839713 0.0110648790
-0.1073083310 0.1423612584 -0.1045160505
-0.0201209353 0.1392528758 0.0142627938
-0.0882735962 0.0374027711 -0.0049880855
0.0937806230 -0.0190169563 0.0080374097
-0.1491671763 0.0528809520 -0.1343267600
0.1112980291 0.0291863723 0.1106215939
-0.1338758482 0.1169313067 -0.0933872493
0.0910850500 0.0558667254 -0.0185841135
0.0311589397 0.1367598136 0.0358076026
-0.0736322009 -0.0150933588 -0.1158650789
0.1124111374 -0.0905631781 -0.1815113297
-0.2288926946 -0.0582274516 0.0854919553
-0.0681628225 -0.0520653654 -0.1031093728
0.1209928636 -0.1968121608 -0.0809172073
0.0349146235 0.0068664700 -0.1041083797
0.0779448573 -0.2007549942 -0.0349151991
-0.1552557887 0.0337004588 0.0415844243
0.0396130345 -0.1082074091 0.1788445491
0.0558383076 -0.0756848049 -0.0638809410
0.0780379253 -0.1891039096 0.0175937556
-0.0558736397 0.0532933411 0.1272423554
0.0361448808 -0.0779970089 -0.2151892781

SCALARS m DOUBLE
LOOKUP_TABLE default
1.0590443102e+00
1.1067514148e+00
1.0597854196e+00
1.0208499074e+00
1.1398421787e+00
1.0694850338e+00
1.1020381812e+00
1.1595688389e+00
1.0861686840e+00
9.7933520638e-01
1.0864641530e+00
8.8275167159e-01
8.1477014992e-01
1.0316017229e+00
9.1975176378e-01
1.0114434380e+00
8.4997365324e-01
8.9812860434e-01
1.2290435512e+00
7.1024022015e-01
9.9487808910e-01
9.1117254679e-01
1.1038945631e+00
9.6182760381e-01
1.1645346065e+00
8.8880679506e-01
1.1202307389e+00
7.5381923394e-01
1.0449809301e+00
8.5886409115e-01
8.6883423534e-01
1.0026661930e+00
1.0708308250e+00
8.3319565414e-01
1.0373842116e+00
9.4113973731e-01
9.4900384734e-01
1.2715754697e+00
1.0955377765e+00
6.9726131499e-01
5.9656775768e-01
1.2812748582e+00
9.4512090311e-01
9.0500111022e-01
9.3552991253e-01
6.8582356458e-01
1.0196958393e+00
9.0694528316e-01
9.3032549166e-01
7.7411269664e-01
1.2584644794e+00
1.1128404437e+00
7.5627196046e-01
9.4682409754e-01
1.0706434151e+00
8.8745229934e-01
1.0482187387e+00
1.1948904727e+00
1.0511800943e+00
8.7751427706e-01
7.6408474531e-01
7.4859145636e-01
1.2504862202e+00
8.8110434999e-01
1.1031327167e+00
9.4212833991e-01
1.1837320113e+00
8.4336311404e-01
1.0458489111e+00
8.5837019699e-01
1.0392266765e+00
4.8490393665e-01
7.4737172802e-01
1.2289370627e+00
1.2046609288e+00
1.2236617373e+00
1.1198723526e+00
1.2598968191e+00
7.5304887374e-01
1.0493392800e+00
1.4909845628e+00
1.0687877403e+00
9.5856117702e-01
8.2121602126e-01
1.0912222943e+00
1.0071211498e+00
8.4676711915e-01
1.0518875293e+00
7.7616010241e-01
1.2011426857e+00
1.0146593182e+00
1.1728750035e+00
9.0748609611e-01
9.1971179861e-01
1.1085407898e+00
1.4106625457e+00
8.1978474814e-01
1.0114254426e+00
8.3374275010e-01
1.1375516444e+00

